 DBCSR| CPU Multiplication driver                                           XSMM (U)
 DBCSR| Multrec recursion limit                                              512 (U)
 DBCSR| Multiplication stack size                                           1000 (D)
 DBCSR| Maximum elements for images                                    UNLIMITED (U)
 DBCSR| Multiplicative factor virtual images                                   1 (U)
 DBCSR| Use multiplication densification                                       T (D)
 DBCSR| Multiplication size stacks                                             3 (U)
 DBCSR| Use memory pool for CPU allocation                                     F (U)
 DBCSR| Number of 3D layers                                               SINGLE (U)
 DBCSR| Use MPI memory allocation                                              F (U)
 DBCSR| Use RMA algorithm                                                      F (U)
 DBCSR| Use Communication thread                                               T (U)
 DBCSR| Communication thread load                                             75 (D)
 DBCSR| MPI: My process id                                                     0
 DBCSR| MPI: Number of processes                                            1024
 DBCSR| OMP: Current number of threads                                         4
 DBCSR| OMP: Max number of threads                                             4
 DBCSR| Split modifier for TAS multiplication algorithm                  1.0E+00 (U)


  **** **** ******  **  PROGRAM STARTED AT               2023-10-18 10:55:05.293
 ***** ** ***  *** **   PROGRAM STARTED ON                              n2cn0701
 **    ****   ******    PROGRAM STARTED BY                              eprop2d1
 ***** **    ** ** **   PROGRAM PROCESS ID                               3585152
  **** **  *******  **  PROGRAM STARTED IN /scratch/hpc-prf-eprop2d/eprop2d1_Jan
                                           /08_develop_new_GW/08_MoS2/45_for_tut
                                           orial/6_as_5_but_upscaled_TZVP_MOLOPT
                                           _BASIS

 CP2K| version string:                 CP2K version 2023.2 (Development Version)
 CP2K| source code revision number:                                  git:a23222a
 CP2K| cp2kflags: omp libint fftw3 libxc elpa parallel scalapack cosma xsmm plum
 CP2K|            ed2 spglib libvori libbqb libvdwxc
 CP2K| is freely available from                            https://www.cp2k.org/
 CP2K| Program compiled at                         Tue Oct 17 15:58:40 CEST 2023
 CP2K| Program compiled on                                              n2login4
 CP2K| Program compiled for                                                local
 CP2K| Data directory path    /opt/software/pc2/EB-SW/software/CP2K/2023.1-foss-
 CP2K| Input file name                                                    GW.inp

 GLOBAL| Force Environment number                                              1
 GLOBAL| Basis set file name            /scratch/hpc-prf-eprop2d/eprop2d1_Jan/08
 GLOBAL| Potential file name            /pc2/groups/hpc-prf-eprop2d/eprop2d1_Jan
 GLOBAL| MM Potential file name                                     MM_POTENTIAL
 GLOBAL| Coordinate file name                                      __STD_INPUT__
 GLOBAL| Method name                                                        CP2K
 GLOBAL| Project name                                                       MoS2
 GLOBAL| Run type                                                         ENERGY
 GLOBAL| FFT library                                                       FFTW3
 GLOBAL| Diagonalization library                                            ELPA
 GLOBAL| DGEMM library                                                      BLAS
 GLOBAL| Minimum number of eigenvectors for ELPA usage                        16
 GLOBAL| Orthonormality check for eigenvectors                          DISABLED
 GLOBAL| Matrix multiplication library                                     COSMA
 GLOBAL| All-to-all communication in single precision                          F
 GLOBAL| FFTs using library dependent lengths                                  F
 GLOBAL| Grid backend                                                       AUTO
 GLOBAL| Global print level                                               MEDIUM
 GLOBAL| MPI I/O enabled                                                       T
 GLOBAL| Total number of message passing processes                          1024
 GLOBAL| Number of threads for this process                                    4
 GLOBAL| This output is from process                                           0
 GLOBAL| Stack size for threads created by OpenMP (OMP_STACKSIZE)        default
 GLOBAL| CPU model name                          AMD EPYC 7763 64-Core Processor
 GLOBAL| CPUID                                                              1002
 GLOBAL| Compiled for CPUID                                                    0

 *** HINT in environment.F:904 :: The compiler target flags (generic) used ***
 *** to build this binary cannot exploit all extensions of this CPU model  ***
 *** (x86_avx2). Consider compiler target flags as part of FCFLAGS and     ***
 *** CFLAGS (ARCH file).                                                   ***


 MEMORY| system memory details [Kb]
 MEMORY|                        rank 0           min           max       average
 MEMORY| MemTotal            263914152     263914144     263917628     263914259
 MEMORY| MemFree             241862096     231782392     250324980     241896413
 MEMORY| Buffers                 60556         30384        327260        157825
 MEMORY| Cached                4986816       3064168      14629660       5273926
 MEMORY| Slab                  7010812        820160      12864704       6305358
 MEMORY| SReclaimable           252116        159836        437848        279302
 MEMORY| MemLikelyFree       247161584     239915532     253753280     247607467


 *** Fundamental physical constants (SI units) ***

 *** Literature: B. J. Mohr and B. N. Taylor,
 ***             CODATA recommended values of the fundamental physical
 ***             constants: 2006, Web Version 5.1
 ***             http://physics.nist.gov/constants

 Speed of light in vacuum [m/s]                             2.99792458000000E+08
 Magnetic constant or permeability of vacuum [N/A**2]       1.25663706143592E-06
 Electric constant or permittivity of vacuum [F/m]          8.85418781762039E-12
 Planck constant (h) [J*s]                                  6.62606896000000E-34
 Planck constant (h-bar) [J*s]                              1.05457162825177E-34
 Elementary charge [C]                                      1.60217648700000E-19
 Electron mass [kg]                                         9.10938215000000E-31
 Electron g factor [ ]                                     -2.00231930436220E+00
 Proton mass [kg]                                           1.67262163700000E-27
 Fine-structure constant                                    7.29735253760000E-03
 Rydberg constant [1/m]                                     1.09737315685270E+07
 Avogadro constant [1/mol]                                  6.02214179000000E+23
 Boltzmann constant [J/K]                                   1.38065040000000E-23
 Atomic mass unit [kg]                                      1.66053878200000E-27
 Bohr radius [m]                                            5.29177208590000E-11

 *** Conversion factors ***

 [u] -> [a.u.]                                              1.82288848426455E+03
 [Angstrom] -> [Bohr] = [a.u.]                              1.88972613288564E+00
 [a.u.] = [Bohr] -> [Angstrom]                              5.29177208590000E-01
 [a.u.] -> [s]                                              2.41888432650478E-17
 [a.u.] -> [fs]                                             2.41888432650478E-02
 [a.u.] -> [J]                                              4.35974393937059E-18
 [a.u.] -> [N]                                              8.23872205491840E-08
 [a.u.] -> [K]                                              3.15774647902944E+05
 [a.u.] -> [kJ/mol]                                         2.62549961709828E+03
 [a.u.] -> [kcal/mol]                                       6.27509468713739E+02
 [a.u.] -> [Pa]                                             2.94210107994716E+13
 [a.u.] -> [bar]                                            2.94210107994716E+08
 [a.u.] -> [atm]                                            2.90362800883016E+08
 [a.u.] -> [eV]                                             2.72113838565563E+01
 [a.u.] -> [Hz]                                             6.57968392072181E+15
 [a.u.] -> [1/cm] (wave numbers)                            2.19474631370540E+05
 [a.u./Bohr**2] -> [1/cm]                                   5.14048714338585E+03
 

 CELL_TOP| Volume [angstrom^3]:                                     10440.661539
 CELL_TOP| Vector a [angstrom    28.350     0.000     0.000   |a| =    28.350000
 CELL_TOP| Vector b [angstrom   -14.175    24.552     0.000   |b| =    28.350000
 CELL_TOP| Vector c [angstrom     0.000     0.000    15.000   |c| =    15.000000
 CELL_TOP| Angle (b,c), alpha [degree]:                                90.000000
 CELL_TOP| Angle (a,c), beta  [degree]:                                90.000000
 CELL_TOP| Angle (a,b), gamma [degree]:                               120.000000
 CELL_TOP| Numerically orthorhombic:                                          NO
 CELL_TOP| Periodicity                                                        XY

 CELL_UC| Volume [angstrom^3]:                                        128.897056
 CELL_UC| Vector a [angstrom]     3.150     0.000     0.000   |a| =     3.150000
 CELL_UC| Vector b [angstrom]    -1.575     2.728     0.000   |b| =     3.150000
 CELL_UC| Vector c [angstrom]     0.000     0.000    15.000   |c| =    15.000000
 CELL_UC| Angle (b,c), alpha [degree]:                                 90.000000
 CELL_UC| Angle (a,c), beta  [degree]:                                 90.000000
 CELL_UC| Angle (a,b), gamma [degree]:                                120.000000
 CELL_UC| Numerically orthorhombic:                                           NO
 CELL_UC| Periodicity                                                         XY

 GENERATE|  Preliminary Number of Bonds generated:                             0
 GENERATE|  Achieved consistency in connectivity generation.

 CELL| Volume [angstrom^3]:                                         10440.661539
 CELL| Vector a [angstrom]:      28.350     0.000     0.000   |a| =    28.350000
 CELL| Vector b [angstrom]:     -14.175    24.552     0.000   |b| =    28.350000
 CELL| Vector c [angstrom]:       0.000     0.000    15.000   |c| =    15.000000
 CELL| Angle (b,c), alpha [degree]:                                    90.000000
 CELL| Angle (a,c), beta  [degree]:                                    90.000000
 CELL| Angle (a,b), gamma [degree]:                                   120.000000
 CELL| Numerically orthorhombic:                                              NO
 CELL| Periodicity                                                            XY

 CELL_REF| Volume [angstrom^3]:                                     10440.661539
 CELL_REF| Vector a [angstrom    28.350     0.000     0.000   |a| =    28.350000
 CELL_REF| Vector b [angstrom   -14.175    24.552     0.000   |b| =    28.350000
 CELL_REF| Vector c [angstrom     0.000     0.000    15.000   |c| =    15.000000
 CELL_REF| Angle (b,c), alpha [degree]:                                90.000000
 CELL_REF| Angle (a,c), beta  [degree]:                                90.000000
 CELL_REF| Angle (a,b), gamma [degree]:                               120.000000
 CELL_REF| Numerically orthorhombic:                                          NO
 CELL_REF| Periodicity                                                        XY

 *******************************************************************************
 *******************************************************************************
 **                                                                           **
 **     #####                         ##              ##                      **
 **    ##   ##            ##          ##              ##                      **
 **   ##     ##                       ##            ######                    **
 **   ##     ##  ##   ##  ##   #####  ##  ##   ####   ##    #####    #####    **
 **   ##     ##  ##   ##  ##  ##      ## ##   ##      ##   ##   ##  ##   ##   **
 **   ##  ## ##  ##   ##  ##  ##      ####     ###    ##   ######   ######    **
 **    ##  ###   ##   ##  ##  ##      ## ##      ##   ##   ##       ##        **
 **     #######   #####   ##   #####  ##  ##  ####    ##    #####   ##        **
 **           ##                                                    ##        **
 **                                                                           **
 **                                                ... make the atoms dance   **
 **                                                                           **
 **            Copyright (C) by CP2K developers group (2000-2023)             **
 **                      J. Chem. Phys. 152, 194103 (2020)                    **
 **                                                                           **
 *******************************************************************************

 DFT| Spin restricted Kohn-Sham (RKS) calculation                            RKS
 DFT| Multiplicity                                                             1
 DFT| Number of spin states                                                    1
 DFT| Charge                                                                   0
 DFT| Self-interaction correction (SIC)                                       NO
 DFT| Cutoffs: density                                              1.000000E-10
 DFT|          gradient                                             1.000000E-10
 DFT|          tau                                                  1.000000E-10
 DFT|          cutoff_smoothing_range                               0.000000E+00
 DFT| XC density smoothing                                                  NONE
 DFT| XC derivatives                                                          PW

 FUNCTIONAL| PADE:
 FUNCTIONAL| S. Goedecker, M. Teter and J. Hutter, Phys. Rev. B 54, 1703 (1996) 


 QS| Method:                                                                 GPW
 QS| Density plane wave grid type                        NON-SPHERICAL FULLSPACE
 QS| Number of grid levels:                                                    4
 QS| Density cutoff [a.u.]:                                                250.0
 QS| Multi grid cutoff [a.u.]: 1) grid level                               250.0
 QS|                           2) grid level                                83.3
 QS|                           3) grid level                                27.8
 QS|                           4) grid level                                 9.3
 QS| Grid level progression factor:                                          3.0
 QS| Relative density cutoff [a.u.]:                                        50.0
 QS| Interaction thresholds: eps_pgf_orb:                                1.0E-40
 QS|                         eps_filter_matrix:                          0.0E+00
 QS|                         eps_core_charge:                            1.0E-42
 QS|                         eps_rho_gspace:                             1.0E-40
 QS|                         eps_rho_rspace:                             1.0E-40
 QS|                         eps_gvg_rspace:                             1.0E-20
 QS|                         eps_ppl:                                    1.0E-02
 QS|                         eps_ppnl:                                   1.0E-22


 ATOMIC KIND INFORMATION

  1. Atomic kind: Mo                                    Number of atoms:      81

     Orbital Basis Set                                  TZVP-MOLOPT-GTH_upscaled

       Number of orbital shell sets:                                           1
       Number of orbital shells:                                              11
       Number of primitive Cartesian functions:                                7
       Number of Cartesian basis functions:                                   41
       Number of spherical basis functions:                                   35
       Norm type:                                                              2

       Normalised Cartesian orbitals:

                        Set   Shell   Orbital            Exponent    Coefficient

                          1       1    2s                2.540273      -1.345673
                                                         1.999996       0.727257
                                                         0.894040       0.537681
                                                         0.439257       0.138693
                                                         0.189498       0.017367
                                                         0.110000       0.032945
                                                         0.100000      -0.044162

                          1       2    3s                2.540273       0.114163
                                                         1.999996      -0.250260
                                                         0.894040       0.156531
                                                         0.439257       0.021259
                                                         0.189498      -0.094450
                                                         0.110000       0.527481
                                                         0.100000      -0.574755

                          1       3    4s                2.540273       0.776470
                                                         1.999996      -2.724036
                                                         0.894040       1.964078
                                                         0.439257      -0.908890
                                                         0.189498       0.239910
                                                         0.110000      -1.638373
                                                         0.100000       1.543363

                          1       4    5s                2.540273       0.193805
                                                         1.999996       0.674775
                                                         0.894040      -0.282582
                                                         0.439257       0.089402
                                                         0.189498      -0.137139
                                                         0.110000      -0.488537
                                                         0.100000       0.405410

                          1       5    3px               2.540273       3.691791
                                                         1.999996      -3.563133
                                                         0.894040      -0.805476
                                                         0.439257      -0.103576
                                                         0.189498       0.030607
                                                         0.110000       0.070996
                                                         0.100000      -0.059871
                          1       5    3py               2.540273       3.691791
                                                         1.999996      -3.563133
                                                         0.894040      -0.805476
                                                         0.439257      -0.103576
                                                         0.189498       0.030607
                                                         0.110000       0.070996
                                                         0.100000      -0.059871
                          1       5    3pz               2.540273       3.691791
                                                         1.999996      -3.563133
                                                         0.894040      -0.805476
                                                         0.439257      -0.103576
                                                         0.189498       0.030607
                                                         0.110000       0.070996
                                                         0.100000      -0.059871

                          1       6    4px               2.540273       0.129010
                                                         1.999996       0.099026
                                                         0.894040      -0.136173
                                                         0.439257      -0.038137
                                                         0.189498      -0.099149
                                                         0.110000       0.214113
                                                         0.100000      -0.222919
                          1       6    4py               2.540273       0.129010
                                                         1.999996       0.099026
                                                         0.894040      -0.136173
                                                         0.439257      -0.038137
                                                         0.189498      -0.099149
                                                         0.110000       0.214113
                                                         0.100000      -0.222919
                          1       6    4pz               2.540273       0.129010
                                                         1.999996       0.099026
                                                         0.894040      -0.136173
                                                         0.439257      -0.038137
                                                         0.189498      -0.099149
                                                         0.110000       0.214113
                                                         0.100000      -0.222919

                          1       7    5px               2.540273       0.471976
                                                         1.999996       0.044875
                                                         0.894040      -0.003198
                                                         0.439257      -0.397109
                                                         0.189498      -0.027230
                                                         0.110000      -0.427107
                                                         0.100000       0.400879
                          1       7    5py               2.540273       0.471976
                                                         1.999996       0.044875
                                                         0.894040      -0.003198
                                                         0.439257      -0.397109
                                                         0.189498      -0.027230
                                                         0.110000      -0.427107
                                                         0.100000       0.400879
                          1       7    5pz               2.540273       0.471976
                                                         1.999996       0.044875
                                                         0.894040      -0.003198
                                                         0.439257      -0.397109
                                                         0.189498      -0.027230
                                                         0.110000      -0.427107
                                                         0.100000       0.400879

                          1       8    4dx2              2.540273      -1.452114
                                                         1.999996       1.851969
                                                         0.894040       0.336748
                                                         0.439257       0.134418
                                                         0.189498       0.030638
                                                         0.110000      -0.028347
                                                         0.100000       0.029183
                          1       8    4dxy              2.540273      -2.515135
                                                         1.999996       3.207704
                                                         0.894040       0.583264
                                                         0.439257       0.232819
                                                         0.189498       0.053066
                                                         0.110000      -0.049099
                                                         0.100000       0.050546
                          1       8    4dxz              2.540273      -2.515135
                                                         1.999996       3.207704
                                                         0.894040       0.583264
                                                         0.439257       0.232819
                                                         0.189498       0.053066
                                                         0.110000      -0.049099
                                                         0.100000       0.050546
                          1       8    4dy2              2.540273      -1.452114
                                                         1.999996       1.851969
                                                         0.894040       0.336748
                                                         0.439257       0.134418
                                                         0.189498       0.030638
                                                         0.110000      -0.028347
                                                         0.100000       0.029183
                          1       8    4dyz              2.540273      -2.515135
                                                         1.999996       3.207704
                                                         0.894040       0.583264
                                                         0.439257       0.232819
                                                         0.189498       0.053066
                                                         0.110000      -0.049099
                                                         0.100000       0.050546
                          1       8    4dz2              2.540273      -1.452114
                                                         1.999996       1.851969
                                                         0.894040       0.336748
                                                         0.439257       0.134418
                                                         0.189498       0.030638
                                                         0.110000      -0.028347
                                                         0.100000       0.029183

                          1       9    5dx2              2.540273       1.091564
                                                         1.999996      -1.380594
                                                         0.894040      -0.266409
                                                         0.439257      -0.106871
                                                         0.189498       0.052951
                                                         0.110000      -0.123814
                                                         0.100000       0.120262
                          1       9    5dxy              2.540273       1.890645
                                                         1.999996      -2.391258
                                                         0.894040      -0.461434
                                                         0.439257      -0.185105
                                                         0.189498       0.091714
                                                         0.110000      -0.214453
                                                         0.100000       0.208300
                          1       9    5dxz              2.540273       1.890645
                                                         1.999996      -2.391258
                                                         0.894040      -0.461434
                                                         0.439257      -0.185105
                                                         0.189498       0.091714
                                                         0.110000      -0.214453
                                                         0.100000       0.208300
                          1       9    5dy2              2.540273       1.091564
                                                         1.999996      -1.380594
                                                         0.894040      -0.266409
                                                         0.439257      -0.106871
                                                         0.189498       0.052951
                                                         0.110000      -0.123814
                                                         0.100000       0.120262
                          1       9    5dyz              2.540273       1.890645
                                                         1.999996      -2.391258
                                                         0.894040      -0.461434
                                                         0.439257      -0.185105
                                                         0.189498       0.091714
                                                         0.110000      -0.214453
                                                         0.100000       0.208300
                          1       9    5dz2              2.540273       1.091564
                                                         1.999996      -1.380594
                                                         0.894040      -0.266409
                                                         0.439257      -0.106871
                                                         0.189498       0.052951
                                                         0.110000      -0.123814
                                                         0.100000       0.120262

                          1      10    6dx2              2.540273       0.186639
                                                         1.999996       0.227829
                                                         0.894040       1.446911
                                                         0.439257      -0.212124
                                                         0.189498      -0.009110
                                                         0.110000      -0.056981
                                                         0.100000       0.033278
                          1      10    6dxy              2.540273       0.323269
                                                         1.999996       0.394612
                                                         0.894040       2.506124
                                                         0.439257      -0.367409
                                                         0.189498      -0.015779
                                                         0.110000      -0.098694
                                                         0.100000       0.057640
                          1      10    6dxz              2.540273       0.323269
                                                         1.999996       0.394612
                                                         0.894040       2.506124
                                                         0.439257      -0.367409
                                                         0.189498      -0.015779
                                                         0.110000      -0.098694
                                                         0.100000       0.057640
                          1      10    6dy2              2.540273       0.186639
                                                         1.999996       0.227829
                                                         0.894040       1.446911
                                                         0.439257      -0.212124
                                                         0.189498      -0.009110
                                                         0.110000      -0.056981
                                                         0.100000       0.033278
                          1      10    6dyz              2.540273       0.323269
                                                         1.999996       0.394612
                                                         0.894040       2.506124
                                                         0.439257      -0.367409
                                                         0.189498      -0.015779
                                                         0.110000      -0.098694
                                                         0.100000       0.057640
                          1      10    6dz2              2.540273       0.186639
                                                         1.999996       0.227829
                                                         0.894040       1.446911
                                                         0.439257      -0.212124
                                                         0.189498      -0.009110
                                                         0.110000      -0.056981
                                                         0.100000       0.033278

                          1      11    5fx3              2.540273       0.802599
                                                         1.999996      -0.728191
                                                         0.894040      -0.320471
                                                         0.439257      -0.113251
                                                         0.189498      -0.010396
                                                         0.110000       0.004443
                                                         0.100000      -0.004689
                          1      11    5fx2y             2.540273       1.794666
                                                         1.999996      -1.628284
                                                         0.894040      -0.716595
                                                         0.439257      -0.253237
                                                         0.189498      -0.023245
                                                         0.110000       0.009935
                                                         0.100000      -0.010486
                          1      11    5fx2z             2.540273       1.794666
                                                         1.999996      -1.628284
                                                         0.894040      -0.716595
                                                         0.439257      -0.253237
                                                         0.189498      -0.023245
                                                         0.110000       0.009935
                                                         0.100000      -0.010486
                          1      11    5fxy2             2.540273       1.794666
                                                         1.999996      -1.628284
                                                         0.894040      -0.716595
                                                         0.439257      -0.253237
                                                         0.189498      -0.023245
                                                         0.110000       0.009935
                                                         0.100000      -0.010486
                          1      11    5fxyz             2.540273       3.108453
                                                         1.999996      -2.820270
                                                         0.894040      -1.241179
                                                         0.439257      -0.438619
                                                         0.189498      -0.040262
                                                         0.110000       0.017207
                                                         0.100000      -0.018162
                          1      11    5fxz2             2.540273       1.794666
                                                         1.999996      -1.628284
                                                         0.894040      -0.716595
                                                         0.439257      -0.253237
                                                         0.189498      -0.023245
                                                         0.110000       0.009935
                                                         0.100000      -0.010486
                          1      11    5fy3              2.540273       0.802599
                                                         1.999996      -0.728191
                                                         0.894040      -0.320471
                                                         0.439257      -0.113251
                                                         0.189498      -0.010396
                                                         0.110000       0.004443
                                                         0.100000      -0.004689
                          1      11    5fy2z             2.540273       1.794666
                                                         1.999996      -1.628284
                                                         0.894040      -0.716595
                                                         0.439257      -0.253237
                                                         0.189498      -0.023245
                                                         0.110000       0.009935
                                                         0.100000      -0.010486
                          1      11    5fyz2             2.540273       1.794666
                                                         1.999996      -1.628284
                                                         0.894040      -0.716595
                                                         0.439257      -0.253237
                                                         0.189498      -0.023245
                                                         0.110000       0.009935
                                                         0.100000      -0.010486
                          1      11    5fz3              2.540273       0.802599
                                                         1.999996      -0.728191
                                                         0.894040      -0.320471
                                                         0.439257      -0.113251
                                                         0.189498      -0.010396
                                                         0.110000       0.004443
                                                         0.100000      -0.004689

     RI Auxiliary Basis Set                                                   RI

       Number of orbital shell sets:                                          17
       Number of orbital shells:                                              17
       Number of primitive Cartesian functions:                               17
       Number of Cartesian basis functions:                                   91
       Number of spherical basis functions:                                   69
       Norm type:                                                              2

       Normalised Cartesian orbitals:

                        Set   Shell   Orbital            Exponent    Coefficient

                          1       1    1s                0.210000       0.221093

                          2       1    1px               0.210000       0.202635
                          2       1    1py               0.210000       0.202635
                          2       1    1pz               0.210000       0.202635

                          3       1    1dx2              0.346956       0.258160
                          3       1    1dxy              0.346956       0.447147
                          3       1    1dxz              0.346956       0.447147
                          3       1    1dy2              0.346956       0.258160
                          3       1    1dyz              0.346956       0.447147
                          3       1    1dz2              0.346956       0.258160

                          4       1    1s                0.360392       0.331506

                          5       1    1fx3              0.410523       0.198593
                          5       1    1fx2y             0.410523       0.444066
                          5       1    1fx2z             0.410523       0.444066
                          5       1    1fxy2             0.410523       0.444066
                          5       1    1fxyz             0.410523       0.769146
                          5       1    1fxz2             0.410523       0.444066
                          5       1    1fy3              0.410523       0.198593
                          5       1    1fy2z             0.410523       0.444066
                          5       1    1fyz2             0.410523       0.444066
                          5       1    1fz3              0.410523       0.198593

                          6       1    1px               0.498778       0.597481
                          6       1    1py               0.498778       0.597481
                          6       1    1pz               0.498778       0.597481

                          7       1    1gx4              0.570000       0.237187
                          7       1    1gx3y             0.570000       0.627538
                          7       1    1gx3z             0.570000       0.627538
                          7       1    1gx2y2            0.570000       0.810149
                          7       1    1gx2yz            0.570000       1.403218
                          7       1    1gx2z2            0.570000       0.810149
                          7       1    1gxy3             0.570000       0.627538
                          7       1    1gxy2z            0.570000       1.403218
                          7       1    1gxyz2            0.570000       1.403218
                          7       1    1gxz3             0.570000       0.627538
                          7       1    1gy4              0.570000       0.237187
                          7       1    1gy3z             0.570000       0.627538
                          7       1    1gy2z2            0.570000       0.810149
                          7       1    1gyz3             0.570000       0.627538
                          7       1    1gz4              0.570000       0.237187

                          8       1    1dx2              0.576698       0.628158
                          8       1    1dxy              0.576698       1.088002
                          8       1    1dxz              0.576698       1.088002
                          8       1    1dy2              0.576698       0.628158
                          8       1    1dyz              0.576698       1.088002
                          8       1    1dz2              0.576698       0.628158

                          9       1    1s                0.619083       0.497418

                         10       1    1s                1.092167       0.761424

                         11       1    1fx3              1.103628       1.837832
                         11       1    1fx2y             1.103628       4.109516
                         11       1    1fx2z             1.103628       4.109516
                         11       1    1fxy2             1.103628       4.109516
                         11       1    1fxyz             1.103628       7.117891
                         11       1    1fxz2             1.103628       4.109516
                         11       1    1fy3              1.103628       1.837832
                         11       1    1fy2z             1.103628       4.109516
                         11       1    1fyz2             1.103628       4.109516
                         11       1    1fz3              1.103628       1.837832

                         12       1    1px               1.390701       2.152694
                         12       1    1py               1.390701       2.152694
                         12       1    1pz               1.390701       2.152694

                         13       1    1dx2              1.439171       3.112475
                         13       1    1dxy              1.439171       5.390965
                         13       1    1dxz              1.439171       5.390965
                         13       1    1dy2              1.439171       3.112475
                         13       1    1dyz              1.439171       5.390965
                         13       1    1dz2              1.439171       3.112475

                         14       1    1gx4              1.615953       4.164995
                         14       1    1gx3y             1.615953      11.019542
                         14       1    1gx3z             1.615953      11.019542
                         14       1    1gx2y2            1.615953      14.226167
                         14       1    1gx2yz            1.615953      24.640444
                         14       1    1gx2z2            1.615953      14.226167
                         14       1    1gxy3             1.615953      11.019542
                         14       1    1gxy2z            1.615953      24.640444
                         14       1    1gxyz2            1.615953      24.640444
                         14       1    1gxz3             1.615953      11.019542
                         14       1    1gy4              1.615953       4.164995
                         14       1    1gy3z             1.615953      11.019542
                         14       1    1gy2z2            1.615953      14.226167
                         14       1    1gyz3             1.615953      11.019542
                         14       1    1gz4              1.615953       4.164995

                         15       1    1px               2.100661       3.604831
                         15       1    1py               2.100661       3.604831
                         15       1    1pz               2.100661       3.604831

                         16       1    1s                2.197983       1.286555

                         17       1    1dx2              2.302596       7.084198
                         17       1    1dxy              2.302596      12.270190
                         17       1    1dxz              2.302596      12.270190
                         17       1    1dy2              2.302596       7.084198
                         17       1    1dyz              2.302596      12.270190
                         17       1    1dz2              2.302596       7.084198

       Atomic covalent radius [Angstrom]:                                  1.300

       Atomic van der Waals radius [Angstrom]:                             1.670

     GTH Potential information for                                  GTH-PADE-q14

       Description:                       Goedecker-Teter-Hutter pseudopotential
                                           Goedecker et al., PRB 54, 1703 (1996)
                                          Hartwigsen et al., PRB 58, 3641 (1998)
                                                      Krack, TCA 114, 145 (2005)

       Gaussian exponent of the core charge distribution:               2.704164
       Electronic configuration (s p d ...):                           3   6   5

       Parameters of the local part of the GTH pseudopotential:

                          rloc        C1          C2          C3          C4
                        0.430000   16.237452    1.496536

       Parameters of the non-local part of the GTH (SOC) pseudopotential:

                   l      r(l)      h(i,j,l)
                                    k(i,j,l)
                   0    0.376255    3.362426    2.048528
                                    2.048528   -5.289276
                   1    0.361734   -0.379571    1.718923
                                    1.718923   -4.067713
                                    0.378681    0.052637
                                    0.052637   -0.124561
                   2    0.525828   -1.543211   -0.473760
                                   -0.473760    1.074388
                                    0.014460    0.006513
                                    0.006513   -0.014769

  2. Atomic kind: S                                     Number of atoms:     162

     Orbital Basis Set                                  TZVP-MOLOPT-GTH_upscaled

       Number of orbital shell sets:                                           1
       Number of orbital shells:                                               7
       Number of primitive Cartesian functions:                                7
       Number of Cartesian basis functions:                                   18
       Number of spherical basis functions:                                   17
       Norm type:                                                              2

       Normalised Cartesian orbitals:

                        Set   Shell   Orbital            Exponent    Coefficient

                          1       1    2s                3.817591       0.157267
                                                         2.362752      -0.510091
                                                         0.861004      -0.067546
                                                         0.417525       0.341513
                                                         0.181514       0.065074
                                                         0.140000      -0.001073
                                                         0.120000       0.001196

                          1       2    3s                3.817591      -0.191568
                                                         2.362752       0.523701
                                                         0.861004       0.282710
                                                         0.417525      -0.587888
                                                         0.181514       0.178884
                                                         0.140000      -0.487887
                                                         0.120000       0.543819

                          1       3    4s                3.817591      -0.991151
                                                         2.362752       1.865280
                                                         0.861004       0.135387
                                                         0.417525      -0.133451
                                                         0.181514       0.078400
                                                         0.140000       0.363817
                                                         0.120000      -0.405526

                          1       4    3px               3.817591      -0.172566
                                                         2.362752      -0.175790
                                                         0.861004       0.224449
                                                         0.417525       0.286658
                                                         0.181514       0.049751
                                                         0.140000      -0.014459
                                                         0.120000       0.014921
                          1       4    3py               3.817591      -0.172566
                                                         2.362752      -0.175790
                                                         0.861004       0.224449
                                                         0.417525       0.286658
                                                         0.181514       0.049751
                                                         0.140000      -0.014459
                                                         0.120000       0.014921
                          1       4    3pz               3.817591      -0.172566
                                                         2.362752      -0.175790
                                                         0.861004       0.224449
                                                         0.417525       0.286658
                                                         0.181514       0.049751
                                                         0.140000      -0.014459
                                                         0.120000       0.014921

                          1       5    4px               3.817591       0.010507
                                                         2.362752       0.217406
                                                         0.861004      -0.162395
                                                         0.417525      -0.206857
                                                         0.181514       0.107046
                                                         0.140000      -0.281393
                                                         0.120000       0.290385
                          1       5    4py               3.817591       0.010507
                                                         2.362752       0.217406
                                                         0.861004      -0.162395
                                                         0.417525      -0.206857
                                                         0.181514       0.107046
                                                         0.140000      -0.281393
                                                         0.120000       0.290385
                          1       5    4pz               3.817591       0.010507
                                                         2.362752       0.217406
                                                         0.861004      -0.162395
                                                         0.417525      -0.206857
                                                         0.181514       0.107046
                                                         0.140000      -0.281393
                                                         0.120000       0.290385

                          1       6    5px               3.817591      -0.947232
                                                         2.362752       1.731661
                                                         0.861004      -1.484366
                                                         0.417525       0.775915
                                                         0.181514       0.065997
                                                         0.140000       0.307740
                                                         0.120000      -0.317574
                          1       6    5py               3.817591      -0.947232
                                                         2.362752       1.731661
                                                         0.861004      -1.484366
                                                         0.417525       0.775915
                                                         0.181514       0.065997
                                                         0.140000       0.307740
                                                         0.120000      -0.317574
                          1       6    5pz               3.817591      -0.947232
                                                         2.362752       1.731661
                                                         0.861004      -1.484366
                                                         0.417525       0.775915
                                                         0.181514       0.065997
                                                         0.140000       0.307740
                                                         0.120000      -0.317574

                          1       7    4dx2              3.817591       0.133441
                                                         2.362752       0.805146
                                                         0.861004       0.452959
                                                         0.417525       0.174839
                                                         0.181514       0.017641
                                                         0.140000       0.004216
                                                         0.120000      -0.004028
                          1       7    4dxy              3.817591       0.231126
                                                         2.362752       1.394554
                                                         0.861004       0.784547
                                                         0.417525       0.302830
                                                         0.181514       0.030555
                                                         0.140000       0.007302
                                                         0.120000      -0.006976
                          1       7    4dxz              3.817591       0.231126
                                                         2.362752       1.394554
                                                         0.861004       0.784547
                                                         0.417525       0.302830
                                                         0.181514       0.030555
                                                         0.140000       0.007302
                                                         0.120000      -0.006976
                          1       7    4dy2              3.817591       0.133441
                                                         2.362752       0.805146
                                                         0.861004       0.452959
                                                         0.417525       0.174839
                                                         0.181514       0.017641
                                                         0.140000       0.004216
                                                         0.120000      -0.004028
                          1       7    4dyz              3.817591       0.231126
                                                         2.362752       1.394554
                                                         0.861004       0.784547
                                                         0.417525       0.302830
                                                         0.181514       0.030555
                                                         0.140000       0.007302
                                                         0.120000      -0.006976
                          1       7    4dz2              3.817591       0.133441
                                                         2.362752       0.805146
                                                         0.861004       0.452959
                                                         0.417525       0.174839
                                                         0.181514       0.017641
                                                         0.140000       0.004216
                                                         0.120000      -0.004028

     RI Auxiliary Basis Set                                                   RI

       Number of orbital shell sets:                                          12
       Number of orbital shells:                                              12
       Number of primitive Cartesian functions:                               12
       Number of Cartesian basis functions:                                   44
       Number of spherical basis functions:                                   38
       Norm type:                                                              2

       Normalised Cartesian orbitals:

                        Set   Shell   Orbital            Exponent    Coefficient

                          1       1    1s                0.250000       0.251979

                          2       1    1px               0.250000       0.251979
                          2       1    1py               0.250000       0.251979
                          2       1    1pz               0.250000       0.251979

                          3       1    1dx2              0.250000       0.145480
                          3       1    1dxy              0.250000       0.251979
                          3       1    1dxz              0.250000       0.251979
                          3       1    1dy2              0.250000       0.145480
                          3       1    1dyz              0.250000       0.251979
                          3       1    1dz2              0.250000       0.145480

                          4       1    1s                0.389135       0.351144

                          5       1    1dx2              0.603367       0.679871
                          5       1    1dxy              0.603367       1.177572
                          5       1    1dxz              0.603367       1.177572
                          5       1    1dy2              0.603367       0.679871
                          5       1    1dyz              0.603367       1.177572
                          5       1    1dz2              0.603367       0.679871

                          6       1    1px               0.631252       0.802035
                          6       1    1py               0.631252       0.802035
                          6       1    1pz               0.631252       0.802035

                          7       1    1fx3              0.711060       0.683508
                          7       1    1fx2y             0.711060       1.528371
                          7       1    1fx2z             0.711060       1.528371
                          7       1    1fxy2             0.711060       1.528371
                          7       1    1fxyz             0.711060       2.647216
                          7       1    1fxz2             0.711060       1.528371
                          7       1    1fy3              0.711060       0.683508
                          7       1    1fy2z             0.711060       1.528371
                          7       1    1fyz2             0.711060       1.528371
                          7       1    1fz3              0.711060       0.683508

                          8       1    1s                0.936032       0.678232

                          9       1    1dx2              1.115385       1.992520
                          9       1    1dxy              1.115385       3.451146
                          9       1    1dxz              1.115385       3.451146
                          9       1    1dy2              1.115385       1.992520
                          9       1    1dyz              1.115385       3.451146
                          9       1    1dz2              1.115385       1.992520

                         10       1    1px               1.173306       1.740620
                         10       1    1py               1.173306       1.740620
                         10       1    1pz               1.173306       1.740620

                         11       1    1s                2.064006       1.227279

                         12       1    1px               2.625789       4.764474
                         12       1    1py               2.625789       4.764474
                         12       1    1pz               2.625789       4.764474

       Atomic covalent radius [Angstrom]:                                  1.020

       Atomic van der Waals radius [Angstrom]:                             1.800

     GTH Potential information for                                   GTH-PADE-q6

       Description:                       Goedecker-Teter-Hutter pseudopotential
                                           Goedecker et al., PRB 54, 1703 (1996)
                                          Hartwigsen et al., PRB 58, 3641 (1998)
                                                      Krack, TCA 114, 145 (2005)

       Gaussian exponent of the core charge distribution:               2.834467
       Electronic configuration (s p d ...):                               2   4

       Parameters of the local part of the GTH pseudopotential:

                          rloc        C1          C2          C3          C4
                        0.420000   -6.554492

       Parameters of the non-local part of the GTH (SOC) pseudopotential:

                   l      r(l)      h(i,j,l)
                                    k(i,j,l)
                   0    0.361757    7.905303   -1.731881
                                   -1.731881    4.471698
                   1    0.405285    3.866579    0.000000
                                    0.000000    0.000000
                                    0.005372   -0.009323
                                   -0.009323    0.022062


 MOLECULE KIND INFORMATION


 All atoms are their own molecule, skipping detailed information


 TOTAL NUMBERS AND MAXIMUM NUMBERS

  Total number of            - Atomic kinds:                                   2
                             - Atoms:                                        243
                             - Shell sets:                                   243
                             - Shells:                                      2025
                             - Primitive Cartesian functions:               1701
                             - Cartesian basis functions:                   6237
                             - Spherical basis functions:                   5589

  Maximum angular momentum of- Orbital basis functions:                        3
                             - Local part of the GTH pseudopotential:          2
                             - Non-local part of the GTH pseudopotential:      4


 MODULE QUICKSTEP: ATOMIC COORDINATES IN ANGSTROM

   Atom Kind Element         X             Y             Z       Z(eff)     Mass
      1    1 Mo   42      0.000000      1.818650      3.075000  14.0000  95.9600
      2    2 S    16      0.000000      3.637310      1.488300   6.0000  32.0650
      3    2 S    16      0.000000      3.637310      4.661700   6.0000  32.0650
      4    1 Mo   42      3.150000      1.818650      3.075000  14.0000  95.9600
      5    2 S    16      3.150000      3.637310      1.488300   6.0000  32.0650
      6    2 S    16      3.150000      3.637310      4.661700   6.0000  32.0650
      7    1 Mo   42      6.300000      1.818650      3.075000  14.0000  95.9600
      8    2 S    16      6.300000      3.637310      1.488300   6.0000  32.0650
      9    2 S    16      6.300000      3.637310      4.661700   6.0000  32.0650
     10    1 Mo   42      9.450000      1.818650      3.075000  14.0000  95.9600
     11    2 S    16      9.450000      3.637310      1.488300   6.0000  32.0650
     12    2 S    16      9.450000      3.637310      4.661700   6.0000  32.0650
     13    1 Mo   42     12.600000      1.818650      3.075000  14.0000  95.9600
     14    2 S    16     12.600000      3.637310      1.488300   6.0000  32.0650
     15    2 S    16     12.600000      3.637310      4.661700   6.0000  32.0650
     16    1 Mo   42     15.750000      1.818650      3.075000  14.0000  95.9600
     17    2 S    16     15.750000      3.637310      1.488300   6.0000  32.0650
     18    2 S    16     15.750000      3.637310      4.661700   6.0000  32.0650
     19    1 Mo   42     18.900000      1.818650      3.075000  14.0000  95.9600
     20    2 S    16     18.900000      3.637310      1.488300   6.0000  32.0650
     21    2 S    16     18.900000      3.637310      4.661700   6.0000  32.0650
     22    1 Mo   42     22.050000      1.818650      3.075000  14.0000  95.9600
     23    2 S    16     22.050000      3.637310      1.488300   6.0000  32.0650
     24    2 S    16     22.050000      3.637310      4.661700   6.0000  32.0650
     25    1 Mo   42     25.200000      1.818650      3.075000  14.0000  95.9600
     26    2 S    16     25.200000      3.637310      1.488300   6.0000  32.0650
     27    2 S    16     25.200000      3.637310      4.661700   6.0000  32.0650
     28    1 Mo   42     -1.575000      4.546630      3.075000  14.0000  95.9600
     29    2 S    16     -1.575000      6.365290      1.488300   6.0000  32.0650
     30    2 S    16     -1.575000      6.365290      4.661700   6.0000  32.0650
     31    1 Mo   42      1.575000      4.546630      3.075000  14.0000  95.9600
     32    2 S    16      1.575000      6.365290      1.488300   6.0000  32.0650
     33    2 S    16      1.575000      6.365290      4.661700   6.0000  32.0650
     34    1 Mo   42      4.725000      4.546630      3.075000  14.0000  95.9600
     35    2 S    16      4.725000      6.365290      1.488300   6.0000  32.0650
     36    2 S    16      4.725000      6.365290      4.661700   6.0000  32.0650
     37    1 Mo   42      7.875000      4.546630      3.075000  14.0000  95.9600
     38    2 S    16      7.875000      6.365290      1.488300   6.0000  32.0650
     39    2 S    16      7.875000      6.365290      4.661700   6.0000  32.0650
     40    1 Mo   42     11.025000      4.546630      3.075000  14.0000  95.9600
     41    2 S    16     11.025000      6.365290      1.488300   6.0000  32.0650
     42    2 S    16     11.025000      6.365290      4.661700   6.0000  32.0650
     43    1 Mo   42     14.175000      4.546630      3.075000  14.0000  95.9600
     44    2 S    16     14.175000      6.365290      1.488300   6.0000  32.0650
     45    2 S    16     14.175000      6.365290      4.661700   6.0000  32.0650
     46    1 Mo   42     17.325000      4.546630      3.075000  14.0000  95.9600
     47    2 S    16     17.325000      6.365290      1.488300   6.0000  32.0650
     48    2 S    16     17.325000      6.365290      4.661700   6.0000  32.0650
     49    1 Mo   42     20.475000      4.546630      3.075000  14.0000  95.9600
     50    2 S    16     20.475000      6.365290      1.488300   6.0000  32.0650
     51    2 S    16     20.475000      6.365290      4.661700   6.0000  32.0650
     52    1 Mo   42     23.625000      4.546630      3.075000  14.0000  95.9600
     53    2 S    16     23.625000      6.365290      1.488300   6.0000  32.0650
     54    2 S    16     23.625000      6.365290      4.661700   6.0000  32.0650
     55    1 Mo   42     -3.150000      7.274610      3.075000  14.0000  95.9600
     56    2 S    16     -3.150000      9.093270      1.488300   6.0000  32.0650
     57    2 S    16     -3.150000      9.093270      4.661700   6.0000  32.0650
     58    1 Mo   42      0.000000      7.274610      3.075000  14.0000  95.9600
     59    2 S    16      0.000000      9.093270      1.488300   6.0000  32.0650
     60    2 S    16      0.000000      9.093270      4.661700   6.0000  32.0650
     61    1 Mo   42      3.150000      7.274610      3.075000  14.0000  95.9600
     62    2 S    16      3.150000      9.093270      1.488300   6.0000  32.0650
     63    2 S    16      3.150000      9.093270      4.661700   6.0000  32.0650
     64    1 Mo   42      6.300000      7.274610      3.075000  14.0000  95.9600
     65    2 S    16      6.300000      9.093270      1.488300   6.0000  32.0650
     66    2 S    16      6.300000      9.093270      4.661700   6.0000  32.0650
     67    1 Mo   42      9.450000      7.274610      3.075000  14.0000  95.9600
     68    2 S    16      9.450000      9.093270      1.488300   6.0000  32.0650
     69    2 S    16      9.450000      9.093270      4.661700   6.0000  32.0650
     70    1 Mo   42     12.600000      7.274610      3.075000  14.0000  95.9600
     71    2 S    16     12.600000      9.093270      1.488300   6.0000  32.0650
     72    2 S    16     12.600000      9.093270      4.661700   6.0000  32.0650
     73    1 Mo   42     15.750000      7.274610      3.075000  14.0000  95.9600
     74    2 S    16     15.750000      9.093270      1.488300   6.0000  32.0650
     75    2 S    16     15.750000      9.093270      4.661700   6.0000  32.0650
     76    1 Mo   42     18.900000      7.274610      3.075000  14.0000  95.9600
     77    2 S    16     18.900000      9.093270      1.488300   6.0000  32.0650
     78    2 S    16     18.900000      9.093270      4.661700   6.0000  32.0650
     79    1 Mo   42     22.050000      7.274610      3.075000  14.0000  95.9600
     80    2 S    16     22.050000      9.093270      1.488300   6.0000  32.0650
     81    2 S    16     22.050000      9.093270      4.661700   6.0000  32.0650
     82    1 Mo   42     -4.725000     10.002590      3.075000  14.0000  95.9600
     83    2 S    16     -4.725000     11.821250      1.488300   6.0000  32.0650
     84    2 S    16     -4.725000     11.821250      4.661700   6.0000  32.0650
     85    1 Mo   42     -1.575000     10.002590      3.075000  14.0000  95.9600
     86    2 S    16     -1.575000     11.821250      1.488300   6.0000  32.0650
     87    2 S    16     -1.575000     11.821250      4.661700   6.0000  32.0650
     88    1 Mo   42      1.575000     10.002590      3.075000  14.0000  95.9600
     89    2 S    16      1.575000     11.821250      1.488300   6.0000  32.0650
     90    2 S    16      1.575000     11.821250      4.661700   6.0000  32.0650
     91    1 Mo   42      4.725000     10.002590      3.075000  14.0000  95.9600
     92    2 S    16      4.725000     11.821250      1.488300   6.0000  32.0650
     93    2 S    16      4.725000     11.821250      4.661700   6.0000  32.0650
     94    1 Mo   42      7.875000     10.002590      3.075000  14.0000  95.9600
     95    2 S    16      7.875000     11.821250      1.488300   6.0000  32.0650
     96    2 S    16      7.875000     11.821250      4.661700   6.0000  32.0650
     97    1 Mo   42     11.025000     10.002590      3.075000  14.0000  95.9600
     98    2 S    16     11.025000     11.821250      1.488300   6.0000  32.0650
     99    2 S    16     11.025000     11.821250      4.661700   6.0000  32.0650
    100    1 Mo   42     14.175000     10.002590      3.075000  14.0000  95.9600
    101    2 S    16     14.175000     11.821250      1.488300   6.0000  32.0650
    102    2 S    16     14.175000     11.821250      4.661700   6.0000  32.0650
    103    1 Mo   42     17.325000     10.002590      3.075000  14.0000  95.9600
    104    2 S    16     17.325000     11.821250      1.488300   6.0000  32.0650
    105    2 S    16     17.325000     11.821250      4.661700   6.0000  32.0650
    106    1 Mo   42     20.475000     10.002590      3.075000  14.0000  95.9600
    107    2 S    16     20.475000     11.821250      1.488300   6.0000  32.0650
    108    2 S    16     20.475000     11.821250      4.661700   6.0000  32.0650
    109    1 Mo   42     -6.300000     12.730570      3.075000  14.0000  95.9600
    110    2 S    16     -6.300000     14.549230      1.488300   6.0000  32.0650
    111    2 S    16     -6.300000     14.549230      4.661700   6.0000  32.0650
    112    1 Mo   42     -3.150000     12.730570      3.075000  14.0000  95.9600
    113    2 S    16     -3.150000     14.549230      1.488300   6.0000  32.0650
    114    2 S    16     -3.150000     14.549230      4.661700   6.0000  32.0650
    115    1 Mo   42      0.000000     12.730570      3.075000  14.0000  95.9600
    116    2 S    16      0.000000     14.549230      1.488300   6.0000  32.0650
    117    2 S    16      0.000000     14.549230      4.661700   6.0000  32.0650
    118    1 Mo   42      3.150000     12.730570      3.075000  14.0000  95.9600
    119    2 S    16      3.150000     14.549230      1.488300   6.0000  32.0650
    120    2 S    16      3.150000     14.549230      4.661700   6.0000  32.0650
    121    1 Mo   42      6.300000     12.730570      3.075000  14.0000  95.9600
    122    2 S    16      6.300000     14.549230      1.488300   6.0000  32.0650
    123    2 S    16      6.300000     14.549230      4.661700   6.0000  32.0650
    124    1 Mo   42      9.450000     12.730570      3.075000  14.0000  95.9600
    125    2 S    16      9.450000     14.549230      1.488300   6.0000  32.0650
    126    2 S    16      9.450000     14.549230      4.661700   6.0000  32.0650
    127    1 Mo   42     12.600000     12.730570      3.075000  14.0000  95.9600
    128    2 S    16     12.600000     14.549230      1.488300   6.0000  32.0650
    129    2 S    16     12.600000     14.549230      4.661700   6.0000  32.0650
    130    1 Mo   42     15.750000     12.730570      3.075000  14.0000  95.9600
    131    2 S    16     15.750000     14.549230      1.488300   6.0000  32.0650
    132    2 S    16     15.750000     14.549230      4.661700   6.0000  32.0650
    133    1 Mo   42     18.900000     12.730570      3.075000  14.0000  95.9600
    134    2 S    16     18.900000     14.549230      1.488300   6.0000  32.0650
    135    2 S    16     18.900000     14.549230      4.661700   6.0000  32.0650
    136    1 Mo   42     -7.875000     15.458550      3.075000  14.0000  95.9600
    137    2 S    16     -7.875000     17.277210      1.488300   6.0000  32.0650
    138    2 S    16     -7.875000     17.277210      4.661700   6.0000  32.0650
    139    1 Mo   42     -4.725000     15.458550      3.075000  14.0000  95.9600
    140    2 S    16     -4.725000     17.277210      1.488300   6.0000  32.0650
    141    2 S    16     -4.725000     17.277210      4.661700   6.0000  32.0650
    142    1 Mo   42     -1.575000     15.458550      3.075000  14.0000  95.9600
    143    2 S    16     -1.575000     17.277210      1.488300   6.0000  32.0650
    144    2 S    16     -1.575000     17.277210      4.661700   6.0000  32.0650
    145    1 Mo   42      1.575000     15.458550      3.075000  14.0000  95.9600
    146    2 S    16      1.575000     17.277210      1.488300   6.0000  32.0650
    147    2 S    16      1.575000     17.277210      4.661700   6.0000  32.0650
    148    1 Mo   42      4.725000     15.458550      3.075000  14.0000  95.9600
    149    2 S    16      4.725000     17.277210      1.488300   6.0000  32.0650
    150    2 S    16      4.725000     17.277210      4.661700   6.0000  32.0650
    151    1 Mo   42      7.875000     15.458550      3.075000  14.0000  95.9600
    152    2 S    16      7.875000     17.277210      1.488300   6.0000  32.0650
    153    2 S    16      7.875000     17.277210      4.661700   6.0000  32.0650
[...]
 Wiley & Sons, Ltd, 173-190 (2016). 
 GPU-Accelerated Sparse Matrix-Matrix Multiplication for
 Linear Scaling Density Functional Theory.
 https://doi.org/10.1002/9781118670712.ch8

 Heinecke, A; Henry, G; Hutchinson, M; Pabst, H. 
 Proceedings of Intl. Supercomputing Conference, 981-991 (2016). 
 LIBXSMM: Accelerating Small Matrix Multiplications
 by Runtime Code Generation.
 https://doi.org/10.1109/SC.2016.83

 Borstnik, U; VandeVondele, J; Weber, V; Hutter, J. 
 PARALLEL COMPUTING, 40 (5-6), 47-58 (2014). 
 Sparse matrix multiplication: The distributed block-compressed sparse
 row library.
 https://doi.org/10.1016/j.parco.2014.03.012

 Hutter, J; Iannuzzi, M; Schiffmann, F; VandeVondele, J. 
 WIREs Comput Mol Sci., 4 (1), 15-25 (2014). 
 CP2K: atomistic simulations of condensed matter systems.
 https://doi.org/10.1002/wcms.1159

 Marek, A; Blum, V; Johanni, R; Havu, V; Lang, B; Auckenthaler, T;
 Heinecke, A; Bungartz, H; Lederer, H. 
 Journal of Physics: Condensed Matter, 26 (21), (2014). 
 The ELPA library: scalable parallel eigenvalue solutions for
 electronic structure
 theory and computational science.
 https://doi.org/10.1088/0953-8984/26/21/213201

 VandeVondele, J; Hutter, J. 
 JOURNAL OF CHEMICAL PHYSICS, 127 (11), 114105 (2007). 
 Gaussian basis sets for accurate calculations on molecular systems in
 gas and condensed phases.
 https://doi.org/10.1063/1.2770708

 Krack, M. 
 THEORETICAL CHEMISTRY ACCOUNTS, 114 (1-3), 145-152 (2005). 
 Pseudopotentials for H to Kr optimized for gradient-corrected
 exchange-correlation functionals.
 https://doi.org/10.1007/s00214-005-0655-y

 VandeVondele, J; Krack, M; Mohamed, F; Parrinello, M; Chassaing, T;
 Hutter, J. COMPUTER PHYSICS COMMUNICATIONS, 167 (2), 103-128 (2005). 
 QUICKSTEP: Fast and accurate density functional calculations using a
 mixed Gaussian and plane waves approach.
 https://doi.org/10.1016/j.cpc.2004.12.014

 Frigo, M; Johnson, SG. 
 PROCEEDINGS OF THE IEEE, 93 (2), 216-231 (2005). 
 The design and implementation of FFTW3.
 https://doi.org/10.1109/JPROC.2004.840301

 Hartwigsen, C; Goedecker, S; Hutter, J. 
 PHYSICAL REVIEW B, 58 (7), 3641-3662 (1998). 
 Relativistic separable dual-space Gaussian pseudopotentials from H to Rn.
 https://doi.org/10.1103/PhysRevB.58.3641

 Lippert, G; Hutter, J; Parrinello, M. 
 MOLECULAR PHYSICS, 92 (3), 477-487 (1997). 
 A hybrid Gaussian and plane wave density functional scheme.
 https://doi.org/10.1080/002689797170220

 Goedecker, S; Teter, M; Hutter, J. 
 PHYSICAL REVIEW B, 54 (3), 1703-1710 (1996). 
 Separable dual-space Gaussian pseudopotentials.
 https://doi.org/10.1103/PhysRevB.54.1703


 -------------------------------------------------------------------------------
 -                                                                             -
 -                                T I M I N G                                  -
 -                                                                             -
 -------------------------------------------------------------------------------
 SUBROUTINE                       CALLS  ASD         SELF TIME        TOTAL TIME
                                MAXIMUM       AVERAGE  MAXIMUM  AVERAGE  MAXIMUM
 CP2K                                 1  1.0    0.070    0.081 9112.595 9112.620
 qs_energies                          1  2.0    0.010    0.015 9111.859 9111.883
 qs_energies_properties               1  3.0    0.000    0.002 8956.358 8956.381
 post_scf_bandstructure               1  4.0    0.002    0.006 8956.358 8956.381
 gw                                   1  5.0    0.000    0.008 8881.388 8881.411
 dbt_total                         1735  8.0    0.013    0.021 4003.352 4003.365
 dbt_contract                       747  8.9    0.037    0.056 3754.008 3755.252
 dbt_tas_multiply                  1494 11.4    0.003    0.004 3734.291 3734.303
 dbt_tas_total                     1494 12.4   17.260   22.446 3734.260 3734.271
 get_Sigma_c                          1  6.0    0.003    0.033 3526.605 3527.749
 get_W_MIC                            1  6.0    0.000    0.000 3072.237 3073.108
 compute_W_MIC                        1  7.0    0.001    0.001 3072.237 3073.108
 compute_fm_W_MIC_freq_j            260  8.0    0.003    0.004 2742.722 2742.890
 contract_to_Sigma                  189  7.0    0.004    0.005 2695.317 2696.990
 dbt_tas_dbm                       1494 13.4    0.004    0.005 2662.449 2662.458
 mp_sync                          10506 11.7 1953.131 2378.327 1953.131 2378.327
 dbm_multiply                      1494 15.4 1735.843 2093.808 1735.843 2093.808
 get_mat_chi_Gamma_tau                1  6.0    0.002    0.002 1961.617 1961.845
 cp_cfm_power                       283  9.0    0.160    0.187 1785.937 1797.988
 compute_3c_integrals               468  7.7    0.014    0.038 1689.183 1694.745
 cp_cfm_heevd                       298  9.9 1659.151 1670.840 1659.151 1670.840
 build_3c_integrals                 485  8.6  508.257  868.867  885.863 1304.083
 dbt_tas_mm_2                       558 14.2    0.002    0.003 1267.802 1267.806
 compute_3c_and_contract_W           99  7.1    0.001    0.002 1037.760 1038.773
 compute_cfm_W_ikp_freq_j           260  9.0    0.018    0.021 1029.335 1029.845
 parallel_gemm_cfm                 1609  9.8    0.003    0.004  849.299  854.959
 parallel_gemm_cfm_cosma           1609 10.8  849.296  854.956  849.296  854.956
 dbm_redistribute                  4482 14.1  557.683  621.382  557.683  621.382
 G_times_3c                         180  7.0    0.018    0.041  596.829  597.782
 libxsmm_abc_contract           2530781  9.6  313.715  597.561  313.715  597.561
 convert_to_new_pgrid              4482 13.4   63.329   88.675  392.424  422.245
 dbt_tas_mm_3T                      378 14.5    0.001    0.001  295.037  420.145
 dbt_tas_mm_3N                      198 14.6    0.000    0.001  322.170  391.685
 cp_cfm_cholesky_invert             286  9.9  340.437  340.620  340.437  340.620
 dbt_tas_mm_1N                      360 14.5    0.001    0.001  262.862  336.904
 get_Sigma_x                          1  6.0    0.000    0.000  230.296  230.472
 compute_Sigma_x                      1  7.0    0.000    0.018  230.296  230.472
 compute_MinvVsqrt_Vsqrt             26  8.0    0.019    0.027  215.532  215.909
 dbt_copy                           988  9.1    0.044    0.088  136.528  185.200
 mp_waitall_2                      6770 16.0  142.185  182.587  142.185  182.587
 mp_sum_l                          8748 12.9  123.396  155.894  123.396  155.894
 scf_env_do_scf                       1  3.0    0.001    0.002  153.000  153.147
 scf_env_do_scf_inner_loop           55  4.0    0.001    0.002  152.999  153.146
 dbt_reshape                        430  9.8   35.400   43.742  102.452  145.420
 dbt_tas_communicate_buffer        2988 15.7    0.255    0.356  124.753  136.384
 copy_dbcsr_to_fm                   486  9.2    0.012    0.020  106.164  114.307
 cp_cfm_cholesky_decompose          332  9.7  110.339  111.380  110.339  111.380
 dbt_communicate_buffer             430 10.8    0.018    0.022   59.837  102.189
 dbt_tas_merge                      558 13.2    3.808    4.279   92.705   98.995
 dbm_reserve_blocks                6655 14.8   68.964   98.244   68.964   98.244
 dbt_tas_reserve_blocks_index      5161 14.0    0.106    0.130   68.128   97.317
 dbt_tas_merge_communicate_buff     558 14.2    0.040    0.046   85.677   91.943
 compute_V_k_by_lattice_sum           7  8.0    0.000    0.008   88.712   88.803
 mp_isend_dv                     205709 16.3   42.097   87.553   42.097   87.553
 dbt_reserve_blocks_index          1705 11.5    0.017    0.020   56.067   81.289
 build_2c_coulomb_matrix_kp           7  9.0    0.000    0.000   62.305   79.887
 lattice_sum                          7 10.0    1.206    1.528   62.304   79.886
 compute_v_transl                 13568 11.0   60.852   78.059   61.085   78.360
 qs_scf_new_mos                      55  5.0    0.004    0.008   75.682   75.817
 dbcsr_desymmetrize_deep            544 10.1    0.084    0.102   63.617   70.508
 dos_pdos_ldos                        1  5.0    6.414    6.984   68.939   69.052
 dbcsr_complete_redistribute        648  9.9    0.272    0.337   62.720   65.015
 alloc_block_3c                     485  9.6    0.509    0.594   42.183   63.533
 mp_alltoall_d11v                  3688 11.4   57.889   62.535   57.889   62.535
 cp_cfm_geeig                        15  6.3    0.000    0.000   58.584   59.368
 eigensolver                         55  6.0    0.004    0.006   54.127   56.470
 cp_fm_diag_elpa                     59  7.1    0.000    0.000   55.602   55.694
 cp_fm_diag_elpa_base                59  8.1   55.458   55.531   55.551   55.551
 mp_alltoall_i11v                  2488 10.9   45.325   52.408   45.325   52.408
 dbt_tas_replicate                 1494 13.4    3.273    3.824   44.233   51.406
 compute_fm_chi_Gamma_freq          260  9.0    0.003    0.004   47.167   48.927
 qs_rho_update_rho_low               56  5.0    0.000    0.000   48.665   48.702
 calculate_rho_elec                  56  6.0    0.007    0.008   48.665   48.702
 compute_QP_energies                  1  6.0    0.000    0.000   47.465   47.537
 cp_fm_write_unformatted             64  8.6   31.110   41.471   36.312   45.366
 fm_write                            61  7.7    0.002    0.994   36.215   45.258
 dbt_tas_replicate_communicate_     936 14.5    0.044    0.059   38.087   45.032
 create_and_init_bs_env_for_gw        1  6.0    0.007    0.011   43.167   43.186
 create_tensors                       1  7.0    0.000    0.001   41.456   41.486
 dbt_destroy                       4649  9.4   28.776   39.468   28.778   39.469
 hybrid_alltoall_any                654 11.3    0.008    0.010   36.948   38.691
 grid_collocate_task_list            56  7.0   34.981   38.035   34.981   38.035
 dbt_tas_copy                       468 10.7   15.792   20.708   27.798   37.917
 dbm_add                           1494 13.4   27.475   34.637   27.475   34.637
 mp_alltoall_i22                   1192 11.0   26.654   34.087   26.654   34.087
 dbt_tas_estimate_result_nze        747 11.9   13.195   16.375   32.624   32.629
 mp_send_dv                          64  9.7    5.198   31.935    5.198   31.935
 to_ikp_and_mo                      110  7.0    0.013    0.014   30.838   30.847
 fm_Gamma_ao_to_cfm_ikp_mo          110  8.0    0.001    0.001   30.670   30.717
 cfm_ikp_from_fm_Gamma              475  8.5   24.246   30.141   24.246   30.141
 qs_ks_build_kohn_sham_matrix        56  7.0    0.004    0.006   29.461   29.946
 write_matrix                        31  7.0    0.000    0.000   12.016   29.928
 sum_up_and_integrate                56  8.0    0.003    0.008   28.772   28.792
 integrate_v_rspace                  56  9.0    0.001    0.002   28.769   28.789
 qs_ks_update_qs_env                 55  5.0    0.000    0.000   28.668   28.688
 rebuild_ks_matrix                   55  6.0    0.000    0.000   28.660   28.680
 dbt_reserve_blocks_index_array    1168 11.0    0.006    0.008   14.408   19.451
 grid_integrate_task_list            56 10.0   17.309   18.737   17.309   18.737
 build_3c_integrals_put_dbcsr    244712  9.6   11.307   18.653   11.307   18.653
 dbt_tas_reserve_blocks_templat    1962 12.6    0.017    0.044   12.073   18.509
 dbm_filter                        2554 12.6   13.565   18.136   13.565   18.136
 parallel_gemm_fm                    46  8.5    0.000    0.000   16.124   16.968
 parallel_gemm_fm_cosma              46  9.5   16.124   16.967   16.124   16.967
 copy_fm_to_dbcsr                   162  8.0    0.000    0.001   15.731   16.370
 density_rs2pw                       56  7.0    0.001    0.002   10.773   15.899
 dbt_crop                           648 10.0    6.607    8.464   11.568   15.583
 transfer_rs2pw                     226  8.0    0.003    0.004    9.420   14.521
 RI_2c_integral_mat                  29  9.0    0.003    0.004   14.048   14.473
 multiply_fm_W_MIC_time_with_Mi       2  8.0    0.000    0.000   14.200   14.208
 compute_proj_mo_on_kind             10  6.0    0.023    0.026   12.520   12.548
 calculate_dm_sparse                 55  6.0    0.001    0.003   12.296   12.434
 cp_dbcsr_plus_fm_fm_t_native        55  7.0    0.001    0.001   12.292   12.431
 mp_waitany                        3795 11.4    7.293   12.186    7.293   12.186
 transfer_rs2pw_250                  58  8.9    0.867    1.114    6.192   11.221
 potential_pw2rs                     56 10.0    0.001    0.001    9.932    9.941
 mp_max_i                          1910  8.1    6.684    9.418    6.684    9.418
 fm_to_local_tensor                  52  7.0    0.005    0.013    8.454    8.747
 G_occ_vir                           21  7.0    0.008    0.015    7.448    8.304
 transfer_pw2rs                     225 11.0    0.002    0.003    7.635    7.650
 dbt_copy_nocomm                     90  9.0    3.699    4.272    6.227    7.166
 mp_alltoall_i                     3934 14.5    6.500    7.096    6.500    7.096
 compute_fm_W_MIC_freq_j_ikp_co     260  9.0    1.215    1.435    5.291    6.429
 cp_fm_cholesky_restore             165  7.0    5.196    6.121    5.196    6.121
 cp_cfm_triangular_multiply          45  7.3    5.883    5.989    5.883    5.989
 mp_waitall_1                    189934 12.9    5.106    5.655    5.106    5.655
 cp_cfm_triangular_invert            15  7.3    5.479    5.520    5.479    5.520
 dbcsr_multiply_generic              55  8.0    0.002    0.003    3.695    5.403
 cp_fm_power                          2  9.0    0.034    0.101    5.381    5.389
 compute_weight_re_im           2196480 10.0    4.076    5.004    4.076    5.004
 pw_transfer                        727  8.9    0.021    0.023    4.439    4.547
 fft_wrap_pw1pw2                    615  9.9    0.002    0.002    4.413    4.520
 transfer_pw2rs_250                  57 11.9    1.045    1.179    4.398    4.492
 dbt_tas_reshape                   1494 14.0    0.042    0.049    3.643    4.223
 cfm_ikp_from_cfm_spinor_Gamma       10  6.0    0.002    0.003    3.510    3.980
 fill_fm_Sigma_c_Gamma_time           1  7.0    0.000    0.000    3.941    3.969
 dbt_tas_merge_alltoall             558 14.2    0.001    0.001    2.996    3.571
 cp_cfm_upper_to_full               286  9.9    0.053    0.061    2.299    3.547
 reshape_mm_small                  1494 13.4    0.323    0.342    3.434    3.546
 cp_cfm_transpose                   290 10.9    2.285    3.515    2.285    3.515
 mp_recv_dv                       14996  9.7    0.003    3.322    0.003    3.322
 rs_gather_matrices                  56 10.0    0.007    0.023    1.526    3.266
 rs_scatter_matrices                 56  7.0    0.004    0.006    2.850    3.254
 fft3d_ps                           336 12.5    0.010    0.051    3.121    3.253
 create_and_init_bs_env               1  5.0    0.002    0.004    3.202    3.205
 cp_fm_copy_general                  55 10.0    0.000    0.000    0.364    3.080
 mp_sum_dv                          209  7.6    2.589    2.976    2.589    2.976
 cp_fm_start_copy_general            55 11.0    0.033    0.038    0.258    2.972
 analyt_conti_and_print               5  7.0    0.217    1.741    2.780    2.960
 dbt_reserve_blocks_template         90 10.0    0.003    0.033    2.528    2.960
 mp_allgather_i                     110 12.0    0.222    2.936    0.222    2.936
 multiply_cannon                     55  9.0    0.006    0.007    2.678    2.808
 transfer_rs2pw_90                   56  9.0    1.096    1.267    2.439    2.759
 multiply_cannon_loop                55 10.0    0.006    0.020    2.625    2.747
 mp_sum_i                          1553 14.2    0.284    2.646    0.284    2.646
 global_matrix_to_local_matrix       52  8.0    0.003    0.006    0.274    2.635
 send_sizes_1                        52  9.0    0.000    0.000    0.241    2.603
 cp_fm_upper_to_full                116  8.1    0.246    2.590    0.246    2.590
 transfer_pw2rs_90                   56 12.0    0.792    0.924    2.273    2.434
 mp_rank_compare                    336 13.5    1.028    2.383    1.028    2.383
 cp_fm_to_fm_submat                 254  8.0    1.636    2.210    1.636    2.210
 mp_sendrecv_dv                  171864 10.0    1.923    2.109    1.923    2.109
 continuation_pade                   30  8.0    0.169    2.101    0.169    2.101
 diagonalize_ks_matrix                1  6.0    0.000    0.000    2.036    2.090
 cp_fm_geeig_canon                    1  7.0    0.000    0.000    2.036    2.090
 dbt_tas_replicate_alltoall         936 14.5    0.001    0.001    1.735    2.004
 multiply_cannon_metrocomm3        1760 11.0    0.003    0.003    1.531    1.827
 dbt_tas_create_split              4542 14.5    0.012    0.014    1.719    1.728
 H_KS_spinor                          2  7.0    0.001    0.001    1.719    1.722
 dbt_tas_create_split_rows_or_c    4542 15.5    0.015    0.017    1.707    1.716
 dbt_tas_reshape_communicate_bu    1494 15.0    0.043    0.048    1.115    1.714
 add_dbcsr_submat                     8  8.0    0.002    0.003    1.697    1.705
 dbt_tas_reshape_alltoall          1494 15.0    0.002    0.002    1.518    1.705
 yz_to_xz                           168 15.0    0.027    0.074    1.568    1.685
 bandstructure_primitive_cell_a       1  5.0    0.000    0.000    1.402    1.578
 fft_wrap_pw1pw2_250                279 10.2    0.032    0.036    1.283    1.453
 dbt_tas_distribution_new          3104 14.3    0.695    0.701    1.446    1.452
 mp_alltoall_z22v                   894 13.7    1.232    1.433    1.232    1.433
 soc                                  1  5.0    0.000    0.000    1.426    1.426
 destroy_tensors_chi                 10  7.0    0.000    0.000    0.968    1.408
 compute_fm_V_xc_Gamma                1  7.0    0.000    0.000    0.912    1.399
 fft3d_pb                           279 11.2    0.053    0.061    1.226    1.391
 get_cfm_submat                      40  7.0    0.000    0.000    0.926    1.377
 G0W0_hamiltonian                     1  7.0    0.000    0.000    1.279    1.280
 fft_wrap_pw1pw2_90                 112 11.5    0.003    0.007    1.056    1.188
 multiply_cannon_metrocomm1        1760 11.0    0.003    0.003    0.786    1.168
 delete_unnecessary_files             1  7.0    0.000    0.000    0.001    1.149
 safe_delete                         40  8.0    0.001    1.149    0.001    1.149
 init_scf_run                         1  3.0    0.003    0.007    1.115    1.115
 fft_wrap_pw1pw2_10                 112 11.5    0.001    0.002    1.053    1.081
 fft_wrap_pw1pw2_30                 112 11.5    0.001    0.005    1.019    1.059
 bandstructure_primitive_cell_s       2  6.0    0.733    0.876    1.041    1.042
 mp_sum_d                           961  5.0    0.529    1.021    0.529    1.021
 reshape_mm_compatible             1494 13.4    0.032    0.034    1.005    1.010
 scf_env_initial_rho_setup            1  4.0    0.002    0.006    0.988    0.988
 check_dist                         180  7.0    0.788    0.966    0.788    0.966
 check_for_restart_files              1  7.0    0.705    0.937    0.705    0.937
 add_cfm_submat                      80  7.0    0.000    0.001    0.676    0.914
 -------------------------------------------------------------------------------

 The number of warnings for this run is : 2
 
 -------------------------------------------------------------------------------
  **** **** ******  **  PROGRAM ENDED AT                 2023-10-18 13:27:05.180
 ***** ** ***  *** **   PROGRAM RAN ON                                  n2cn0701
 **    ****   ******    PROGRAM RAN BY                                  eprop2d1
 ***** **    ** ** **   PROGRAM PROCESS ID                               3585152
  **** **  *******  **  PROGRAM STOPPED IN /scratch/hpc-prf-eprop2d/eprop2d1_Jan
                                           /08_develop_new_GW/08_MoS2/45_for_tut
                                           orial/6_as_5_but_upscaled_TZVP_MOLOPT
                                           _BASIS
